ITEM: TIMESTEP
0
ITEM: NUMBER OF CELLS
8080
ITEM: BOX BOUNDS oo oo pp
-0.1 0.1
-0.1 0.1
-0.5 0.5
ITEM: CELLS id f_1[1] f_1[2] f_1[3] f_1[4] f_1[5] f_1[6] f_1[7] f_1[8] 
1 0 0 0 0 0 0 0 0 
3 0 0 0 0 0 0 0 0 
5 0 0 0 0 0 0 0 0 
7 0 0 0 0 0 0 0 0 
9 0 0 0 0 0 0 0 0 
11 0 0 0 0 0 0 0 0 
13 0 0 0 0 0 0 0 0 
15 0 0 0 0 0 0 0 0 
17 0 0 0 0 0 0 0 0 
19 0 0 0 0 0 0 0 0 
21 0 0 0 0 0 0 0 0 
23 0 0 0 0 0 0 0 0 
25 0 0 0 0 0 0 0 0 
51 0 0 0 0 0 0 0 0 
53 0 0 0 0 0 0 0 0 
55 0 0 0 0 0 0 0 0 
57 0 0 0 0 0 0 0 0 
59 0 0 0 0 0 0 0 0 
61 0 0 0 0 0 0 0 0 
63 0 0 0 0 0 0 0 0 
65 0 0 0 0 0 0 0 0 
67 0 0 0 0 0 0 0 0 
69 0 0 0 0 0 0 0 0 
71 0 0 0 0 0 0 0 0 
73 0 0 0 0 0 0 0 0 
75 0 0 0 0 0 0 0 0 
101 0 0 0 0 0 0 0 0 
103 0 0 0 0 0 0 0 0 
105 0 0 0 0 0 0 0 0 
107 0 0 0 0 0 0 0 0 
109 0 0 0 0 0 0 0 0 
111 0 0 0 0 0 0 0 0 
113 0 0 0 0 0 0 0 0 
115 0 0 0 0 0 0 0 0 
117 0 0 0 0 0 0 0 0 
119 0 0 0 0 0 0 0 0 
121 0 0 0 0 0 0 0 0 
123 0 0 0 0 0 0 0 0 
125 0 0 0 0 0 0 0 0 
151 0 0 0 0 0 0 0 0 
153 0 0 0 0 0 0 0 0 
155 0 0 0 0 0 0 0 0 
157 0 0 0 0 0 0 0 0 
159 0 0 0 0 0 0 0 0 
161 0 0 0 0 0 0 0 0 
163 0 0 0 0 0 0 0 0 
165 0 0 0 0 0 0 0 0 
167 0 0 0 0 0 0 0 0 
169 0 0 0 0 0 0 0 0 
171 0 0 0 0 0 0 0 0 
173 0 0 0 0 0 0 0 0 
175 0 0 0 0 0 0 0 0 
201 0 0 0 0 0 0 0 0 
203 0 0 0 0 0 0 0 0 
205 0 0 0 0 0 0 0 0 
207 0 0 0 0 0 0 0 0 
209 0 0 0 0 0 0 0 0 
211 0 0 0 0 0 0 0 0 
213 0 0 0 0 0 0 0 0 
215 0 0 0 0 0 0 0 0 
217 0 0 0 0 0 0 0 0 
219 0 0 0 0 0 0 0 0 
221 0 0 0 0 0 0 0 0 
223 0 0 0 0 0 0 0 0 
225 0 0 0 0 0 0 0 0 
251 0 0 0 0 0 0 0 0 
253 0 0 0 0 0 0 0 0 
255 0 0 0 0 0 0 0 0 
257 0 0 0 0 0 0 0 0 
259 0 0 0 0 0 0 0 0 
261 0 0 0 0 0 0 0 0 
263 0 0 0 0 0 0 0 0 
265 0 0 0 0 0 0 0 0 
267 0 0 0 0 0 0 0 0 
269 0 0 0 0 0 0 0 0 
271 0 0 0 0 0 0 0 0 
273 0 0 0 0 0 0 0 0 
275 0 0 0 0 0 0 0 0 
301 0 0 0 0 0 0 0 0 
303 0 0 0 0 0 0 0 0 
305 0 0 0 0 0 0 0 0 
307 0 0 0 0 0 0 0 0 
309 0 0 0 0 0 0 0 0 
311 0 0 0 0 0 0 0 0 
313 0 0 0 0 0 0 0 0 
315 0 0 0 0 0 0 0 0 
317 0 0 0 0 0 0 0 0 
319 0 0 0 0 0 0 0 0 
321 0 0 0 0 0 0 0 0 
323 0 0 0 0 0 0 0 0 
325 0 0 0 0 0 0 0 0 
351 0 0 0 0 0 0 0 0 
353 0 0 0 0 0 0 0 0 
355 0 0 0 0 0 0 0 0 
357 0 0 0 0 0 0 0 0 
359 0 0 0 0 0 0 0 0 
361 0 0 0 0 0 0 0 0 
363 0 0 0 0 0 0 0 0 
365 0 0 0 0 0 0 0 0 
367 0 0 0 0 0 0 0 0 
369 0 0 0 0 0 0 0 0 
371 0 0 0 0 0 0 0 0 
373 0 0 0 0 0 0 0 0 
375 0 0 0 0 0 0 0 0 
401 0 0 0 0 0 0 0 0 
403 0 0 0 0 0 0 0 0 
405 0 0 0 0 0 0 0 0 
407 0 0 0 0 0 0 0 0 
409 0 0 0 0 0 0 0 0 
411 0 0 0 0 0 0 0 0 
413 0 0 0 0 0 0 0 0 
415 0 0 0 0 0 0 0 0 
417 0 0 0 0 0 0 0 0 
419 0 0 0 0 0 0 0 0 
421 0 0 0 0 0 0 0 0 
423 0 0 0 0 0 0 0 0 
425 0 0 0 0 0 0 0 0 
451 0 0 0 0 0 0 0 0 
453 0 0 0 0 0 0 0 0 
455 0 0 0 0 0 0 0 0 
457 0 0 0 0 0 0 0 0 
459 0 0 0 0 0 0 0 0 
461 0 0 0 0 0 0 0 0 
463 0 0 0 0 0 0 0 0 
465 0 0 0 0 0 0 0 0 
467 0 0 0 0 0 0 0 0 
469 0 0 0 0 0 0 0 0 
471 0 0 0 0 0 0 0 0 
473 0 0 0 0 0 0 0 0 
475 0 0 0 0 0 0 0 0 
501 0 0 0 0 0 0 0 0 
503 0 0 0 0 0 0 0 0 
505 0 0 0 0 0 0 0 0 
507 0 0 0 0 0 0 0 0 
509 0 0 0 0 0 0 0 0 
511 0 0 0 0 0 0 0 0 
513 0 0 0 0 0 0 0 0 
515 0 0 0 0 0 0 0 0 
517 0 0 0 0 0 0 0 0 
519 0 0 0 0 0 0 0 0 
521 0 0 0 0 0 0 0 0 
523 0 0 0 0 0 0 0 0 
525 0 0 0 0 0 0 0 0 
551 0 0 0 0 0 0 0 0 
553 0 0 0 0 0 0 0 0 
555 0 0 0 0 0 0 0 0 
557 0 0 0 0 0 0 0 0 
559 0 0 0 0 0 0 0 0 
561 0 0 0 0 0 0 0 0 
563 0 0 0 0 0 0 0 0 
565 0 0 0 0 0 0 0 0 
567 0 0 0 0 0 0 0 0 
569 0 0 0 0 0 0 0 0 
571 0 0 0 0 0 0 0 0 
573 0 0 0 0 0 0 0 0 
575 0 0 0 0 0 0 0 0 
601 0 0 0 0 0 0 0 0 
603 0 0 0 0 0 0 0 0 
605 0 0 0 0 0 0 0 0 
607 0 0 0 0 0 0 0 0 
609 0 0 0 0 0 0 0 0 
611 0 0 0 0 0 0 0 0 
613 0 0 0 0 0 0 0 0 
615 0 0 0 0 0 0 0 0 
617 0 0 0 0 0 0 0 0 
619 0 0 0 0 0 0 0 0 
621 0 0 0 0 0 0 0 0 
623 0 0 0 0 0 0 0 0 
625 0 0 0 0 0 0 0 0 
651 0 0 0 0 0 0 0 0 
653 0 0 0 0 0 0 0 0 
655 0 0 0 0 0 0 0 0 
657 0 0 0 0 0 0 0 0 
659 0 0 0 0 0 0 0 0 
661 0 0 0 0 0 0 0 0 
663 0 0 0 0 0 0 0 0 
665 0 0 0 0 0 0 0 0 
667 0 0 0 0 0 0 0 0 
669 0 0 0 0 0 0 0 0 
671 0 0 0 0 0 0 0 0 
673 0 0 0 0 0 0 0 0 
675 0 0 0 0 0 0 0 0 
701 0 0 0 0 0 0 0 0 
703 0 0 0 0 0 0 0 0 
705 0 0 0 0 0 0 0 0 
707 0 0 0 0 0 0 0 0 
709 0 0 0 0 0 0 0 0 
711 0 0 0 0 0 0 0 0 
713 0 0 0 0 0 0 0 0 
715 0 0 0 0 0 0 0 0 
717 0 0 0 0 0 0 0 0 
719 0 0 0 0 0 0 0 0 
721 0 0 0 0 0 0 0 0 
723 0 0 0 0 0 0 0 0 
725 0 0 0 0 0 0 0 0 
751 0 0 0 0 0 0 0 0 
753 0 0 0 0 0 0 0 0 
755 0 0 0 0 0 0 0 0 
757 0 0 0 0 0 0 0 0 
759 0 0 0 0 0 0 0 0 
761 0 0 0 0 0 0 0 0 
763 0 0 0 0 0 0 0 0 
765 0 0 0 0 0 0 0 0 
767 0 0 0 0 0 0 0 0 
769 0 0 0 0 0 0 0 0 
771 0 0 0 0 0 0 0 0 
773 0 0 0 0 0 0 0 0 
775 0 0 0 0 0 0 0 0 
801 0 0 0 0 0 0 0 0 
803 0 0 0 0 0 0 0 0 
805 0 0 0 0 0 0 0 0 
807 0 0 0 0 0 0 0 0 
809 0 0 0 0 0 0 0 0 
811 0 0 0 0 0 0 0 0 
813 0 0 0 0 0 0 0 0 
815 0 0 0 0 0 0 0 0 
817 0 0 0 0 0 0 0 0 
819 0 0 0 0 0 0 0 0 
821 0 0 0 0 0 0 0 0 
823 0 0 0 0 0 0 0 0 
825 0 0 0 0 0 0 0 0 
851 0 0 0 0 0 0 0 0 
853 0 0 0 0 0 0 0 0 
855 0 0 0 0 0 0 0 0 
857 0 0 0 0 0 0 0 0 
859 0 0 0 0 0 0 0 0 
861 0 0 0 0 0 0 0 0 
863 0 0 0 0 0 0 0 0 
865 0 0 0 0 0 0 0 0 
867 0 0 0 0 0 0 0 0 
869 0 0 0 0 0 0 0 0 
871 0 0 0 0 0 0 0 0 
901 0 0 0 0 0 0 0 0 
903 0 0 0 0 0 0 0 0 
905 0 0 0 0 0 0 0 0 
907 0 0 0 0 0 0 0 0 
909 0 0 0 0 0 0 0 0 
911 0 0 0 0 0 0 0 0 
913 0 0 0 0 0 0 0 0 
915 0 0 0 0 0 0 0 0 
917 0 0 0 0 0 0 0 0 
919 0 0 0 0 0 0 0 0 
925 0 0 0 0 0 0 0 0 
951 0 0 0 0 0 0 0 0 
953 0 0 0 0 0 0 0 0 
955 0 0 0 0 0 0 0 0 
957 0 0 0 0 0 0 0 0 
959 0 0 0 0 0 0 0 0 
961 0 0 0 0 0 0 0 0 
963 0 0 0 0 0 0 0 0 
965 0 0 0 0 0 0 0 0 
967 0 0 0 0 0 0 0 0 
969 0 0 0 0 0 0 0 0 
973 0 0 0 0 0 0 0 0 
975 0 0 0 0 0 0 0 0 
1001 0 0 0 0 0 0 0 0 
1003 0 0 0 0 0 0 0 0 
1005 0 0 0 0 0 0 0 0 
1007 0 0 0 0 0 0 0 0 
1009 0 0 0 0 0 0 0 0 
1011 0 0 0 0 0 0 0 0 
1013 0 0 0 0 0 0 0 0 
1015 0 0 0 0 0 0 0 0 
1017 0 0 0 0 0 0 0 0 
1021 0 0 0 0 0 0 0 0 
1023 0 0 0 0 0 0 0 0 
1025 0 0 0 0 0 0 0 0 
1051 0 0 0 0 0 0 0 0 
1053 0 0 0 0 0 0 0 0 
1055 0 0 0 0 0 0 0 0 
1057 0 0 0 0 0 0 0 0 
1059 0 0 0 0 0 0 0 0 
1061 0 0 0 0 0 0 0 0 
1063 0 0 0 0 0 0 0 0 
1065 0 0 0 0 0 0 0 0 
1067 0 0 0 0 0 0 0 0 
1071 0 0 0 0 0 0 0 0 
1073 0 0 0 0 0 0 0 0 
1075 0 0 0 0 0 0 0 0 
1101 0 0 0 0 0 0 0 0 
1103 0 0 0 0 0 0 0 0 
1105 0 0 0 0 0 0 0 0 
1107 0 0 0 0 0 0 0 0 
1109 0 0 0 0 0 0 0 0 
1111 0 0 0 0 0 0 0 0 
1113 0 0 0 0 0 0 0 0 
1115 0 0 0 0 0 0 0 0 
1117 0 0 0 0 0 0 0 0 
1121 0 0 0 0 0 0 0 0 
1123 0 0 0 0 0 0 0 0 
1125 0 0 0 0 0 0 0 0 
1151 0 0 0 0 0 0 0 0 
1153 0 0 0 0 0 0 0 0 
1155 0 0 0 0 0 0 0 0 
1157 0 0 0 0 0 0 0 0 
1159 0 0 0 0 0 0 0 0 
1161 0 0 0 0 0 0 0 0 
1163 0 0 0 0 0 0 0 0 
1165 0 0 0 0 0 0 0 0 
1167 0 0 0 0 0 0 0 0 
1169 0 0 0 0 0 0 0 0 
1171 0 0 0 0 0 0 0 0 
1173 0 0 0 0 0 0 0 0 
1175 0 0 0 0 0 0 0 0 
1201 0 0 0 0 0 0 0 0 
1203 0 0 0 0 0 0 0 0 
1205 0 0 0 0 0 0 0 0 
1207 0 0 0 0 0 0 0 0 
1209 0 0 0 0 0 0 0 0 
1211 0 0 0 0 0 0 0 0 
1213 0 0 0 0 0 0 0 0 
1215 0 0 0 0 0 0 0 0 
1217 0 0 0 0 0 0 0 0 
1219 0 0 0 0 0 0 0 0 
1221 0 0 0 0 0 0 0 0 
1223 0 0 0 0 0 0 0 0 
1225 0 0 0 0 0 0 0 0 
1251 0 0 0 0 0 0 0 0 
1253 0 0 0 0 0 0 0 0 
1255 0 0 0 0 0 0 0 0 
1257 0 0 0 0 0 0 0 0 
1259 0 0 0 0 0 0 0 0 
1261 0 0 0 0 0 0 0 0 
1263 0 0 0 0 0 0 0 0 
1265 0 0 0 0 0 0 0 0 
1267 0 0 0 0 0 0 0 0 
1269 0 0 0 0 0 0 0 0 
1271 0 0 0 0 0 0 0 0 
1273 0 0 0 0 0 0 0 0 
1275 0 0 0 0 0 0 0 0 
1301 0 0 0 0 0 0 0 0 
1303 0 0 0 0 0 0 0 0 
1305 0 0 0 0 0 0 0 0 
1307 0 0 0 0 0 0 0 0 
1309 0 0 0 0 0 0 0 0 
1311 0 0 0 0 0 0 0 0 
1313 0 0 0 0 0 0 0 0 
1315 0 0 0 0 0 0 0 0 
1317 0 0 0 0 0 0 0 0 
1319 0 0 0 0 0 0 0 0 
1321 0 0 0 0 0 0 0 0 
1323 0 0 0 0 0 0 0 0 
1325 0 0 0 0 0 0 0 0 
1351 0 0 0 0 0 0 0 0 
1353 0 0 0 0 0 0 0 0 
1355 0 0 0 0 0 0 0 0 
1357 0 0 0 0 0 0 0 0 
1359 0 0 0 0 0 0 0 0 
1361 0 0 0 0 0 0 0 0 
1363 0 0 0 0 0 0 0 0 
1365 0 0 0 0 0 0 0 0 
1367 0 0 0 0 0 0 0 0 
1371 0 0 0 0 0 0 0 0 
1373 0 0 0 0 0 0 0 0 
1375 0 0 0 0 0 0 0 0 
1401 0 0 0 0 0 0 0 0 
1403 0 0 0 0 0 0 0 0 
1405 0 0 0 0 0 0 0 0 
1407 0 0 0 0 0 0 0 0 
1409 0 0 0 0 0 0 0 0 
1411 0 0 0 0 0 0 0 0 
1413 0 0 0 0 0 0 0 0 
1415 0 0 0 0 0 0 0 0 
1417 0 0 0 0 0 0 0 0 
1421 0 0 0 0 0 0 0 0 
1423 0 0 0 0 0 0 0 0 
1425 0 0 0 0 0 0 0 0 
1451 0 0 0 0 0 0 0 0 
1453 0 0 0 0 0 0 0 0 
1455 0 0 0 0 0 0 0 0 
1457 0 0 0 0 0 0 0 0 
1459 0 0 0 0 0 0 0 0 
1461 0 0 0 0 0 0 0 0 
1463 0 0 0 0 0 0 0 0 
1465 0 0 0 0 0 0 0 0 
1467 0 0 0 0 0 0 0 0 
1471 0 0 0 0 0 0 0 0 
1473 0 0 0 0 0 0 0 0 
1475 0 0 0 0 0 0 0 0 
1501 0 0 0 0 0 0 0 0 
1503 0 0 0 0 0 0 0 0 
1505 0 0 0 0 0 0 0 0 
1507 0 0 0 0 0 0 0 0 
1509 0 0 0 0 0 0 0 0 
1511 0 0 0 0 0 0 0 0 
1513 0 0 0 0 0 0 0 0 
1515 0 0 0 0 0 0 0 0 
1517 0 0 0 0 0 0 0 0 
1519 0 0 0 0 0 0 0 0 
1523 0 0 0 0 0 0 0 0 
1525 0 0 0 0 0 0 0 0 
1551 0 0 0 0 0 0 0 0 
1553 0 0 0 0 0 0 0 0 
1555 0 0 0 0 0 0 0 0 
1557 0 0 0 0 0 0 0 0 
1559 0 0 0 0 0 0 0 0 
1561 0 0 0 0 0 0 0 0 
1563 0 0 0 0 0 0 0 0 
1565 0 0 0 0 0 0 0 0 
1567 0 0 0 0 0 0 0 0 
1569 0 0 0 0 0 0 0 0 
1575 0 0 0 0 0 0 0 0 
1601 0 0 0 0 0 0 0 0 
1603 0 0 0 0 0 0 0 0 
1605 0 0 0 0 0 0 0 0 
1607 0 0 0 0 0 0 0 0 
1609 0 0 0 0 0 0 0 0 
1611 0 0 0 0 0 0 0 0 
1613 0 0 0 0 0 0 0 0 
1615 0 0 0 0 0 0 0 0 
1617 0 0 0 0 0 0 0 0 
1619 0 0 0 0 0 0 0 0 
1621 0 0 0 0 0 0 0 0 
1651 0 0 0 0 0 0 0 0 
1653 0 0 0 0 0 0 0 0 
1655 0 0 0 0 0 0 0 0 
1657 0 0 0 0 0 0 0 0 
1659 0 0 0 0 0 0 0 0 
1661 0 0 0 0 0 0 0 0 
1663 0 0 0 0 0 0 0 0 
1665 0 0 0 0 0 0 0 0 
1667 0 0 0 0 0 0 0 0 
1669 0 0 0 0 0 0 0 0 
1671 0 0 0 0 0 0 0 0 
1673 0 0 0 0 0 0 0 0 
1675 0 0 0 0 0 0 0 0 
1701 0 0 0 0 0 0 0 0 
1703 0 0 0 0 0 0 0 0 
1705 0 0 0 0 0 0 0 0 
1707 0 0 0 0 0 0 0 0 
1709 0 0 0 0 0 0 0 0 
1711 0 0 0 0 0 0 0 0 
1713 0 0 0 0 0 0 0 0 
1715 0 0 0 0 0 0 0 0 
1717 0 0 0 0 0 0 0 0 
1719 0 0 0 0 0 0 0 0 
1721 0 0 0 0 0 0 0 0 
1723 0 0 0 0 0 0 0 0 
1725 0 0 0 0 0 0 0 0 
1751 0 0 0 0 0 0 0 0 
1753 0 0 0 0 0 0 0 0 
1755 0 0 0 0 0 0 0 0 
1757 0 0 0 0 0 0 0 0 
1759 0 0 0 0 0 0 0 0 
1761 0 0 0 0 0 0 0 0 
1763 0 0 0 0 0 0 0 0 
1765 0 0 0 0 0 0 0 0 
1767 0 0 0 0 0 0 0 0 
1769 0 0 0 0 0 0 0 0 
1771 0 0 0 0 0 0 0 0 
1773 0 0 0 0 0 0 0 0 
1775 0 0 0 0 0 0 0 0 
1801 0 0 0 0 0 0 0 0 
1803 0 0 0 0 0 0 0 0 
1805 0 0 0 0 0 0 0 0 
1807 0 0 0 0 0 0 0 0 
1809 0 0 0 0 0 0 0 0 
1811 0 0 0 0 0 0 0 0 
1813 0 0 0 0 0 0 0 0 
1815 0 0 0 0 0 0 0 0 
1817 0 0 0 0 0 0 0 0 
1819 0 0 0 0 0 0 0 0 
1821 0 0 0 0 0 0 0 0 
1823 0 0 0 0 0 0 0 0 
1825 0 0 0 0 0 0 0 0 
1851 0 0 0 0 0 0 0 0 
1853 0 0 0 0 0 0 0 0 
1855 0 0 0 0 0 0 0 0 
1857 0 0 0 0 0 0 0 0 
1859 0 0 0 0 0 0 0 0 
1861 0 0 0 0 0 0 0 0 
1863 0 0 0 0 0 0 0 0 
1865 0 0 0 0 0 0 0 0 
1867 0 0 0 0 0 0 0 0 
1869 0 0 0 0 0 0 0 0 
1871 0 0 0 0 0 0 0 0 
1873 0 0 0 0 0 0 0 0 
1875 0 0 0 0 0 0 0 0 
1901 0 0 0 0 0 0 0 0 
1903 0 0 0 0 0 0 0 0 
1905 0 0 0 0 0 0 0 0 
1907 0 0 0 0 0 0 0 0 
1909 0 0 0 0 0 0 0 0 
1911 0 0 0 0 0 0 0 0 
1913 0 0 0 0 0 0 0 0 
1915 0 0 0 0 0 0 0 0 
1917 0 0 0 0 0 0 0 0 
1919 0 0 0 0 0 0 0 0 
1921 0 0 0 0 0 0 0 0 
1923 0 0 0 0 0 0 0 0 
1925 0 0 0 0 0 0 0 0 
1951 0 0 0 0 0 0 0 0 
1953 0 0 0 0 0 0 0 0 
1955 0 0 0 0 0 0 0 0 
1957 0 0 0 0 0 0 0 0 
1959 0 0 0 0 0 0 0 0 
1961 0 0 0 0 0 0 0 0 
1963 0 0 0 0 0 0 0 0 
1965 0 0 0 0 0 0 0 0 
1967 0 0 0 0 0 0 0 0 
1969 0 0 0 0 0 0 0 0 
1971 0 0 0 0 0 0 0 0 
1973 0 0 0 0 0 0 0 0 
1975 0 0 0 0 0 0 0 0 
2001 0 0 0 0 0 0 0 0 
2003 0 0 0 0 0 0 0 0 
2005 0 0 0 0 0 0 0 0 
2007 0 0 0 0 0 0 0 0 
2009 0 0 0 0 0 0 0 0 
2011 0 0 0 0 0 0 0 0 
2013 0 0 0 0 0 0 0 0 
2015 0 0 0 0 0 0 0 0 
2017 0 0 0 0 0 0 0 0 
2019 0 0 0 0 0 0 0 0 
2021 0 0 0 0 0 0 0 0 
2023 0 0 0 0 0 0 0 0 
2025 0 0 0 0 0 0 0 0 
2051 0 0 0 0 0 0 0 0 
2053 0 0 0 0 0 0 0 0 
2055 0 0 0 0 0 0 0 0 
2057 0 0 0 0 0 0 0 0 
2059 0 0 0 0 0 0 0 0 
2061 0 0 0 0 0 0 0 0 
2063 0 0 0 0 0 0 0 0 
2065 0 0 0 0 0 0 0 0 
2067 0 0 0 0 0 0 0 0 
2069 0 0 0 0 0 0 0 0 
2071 0 0 0 0 0 0 0 0 
2073 0 0 0 0 0 0 0 0 
2075 0 0 0 0 0 0 0 0 
2101 0 0 0 0 0 0 0 0 
2103 0 0 0 0 0 0 0 0 
2105 0 0 0 0 0 0 0 0 
2107 0 0 0 0 0 0 0 0 
2109 0 0 0 0 0 0 0 0 
2111 0 0 0 0 0 0 0 0 
2113 0 0 0 0 0 0 0 0 
2115 0 0 0 0 0 0 0 0 
2117 0 0 0 0 0 0 0 0 
2119 0 0 0 0 0 0 0 0 
2121 0 0 0 0 0 0 0 0 
2123 0 0 0 0 0 0 0 0 
2125 0 0 0 0 0 0 0 0 
2151 0 0 0 0 0 0 0 0 
2153 0 0 0 0 0 0 0 0 
2155 0 0 0 0 0 0 0 0 
2157 0 0 0 0 0 0 0 0 
2159 0 0 0 0 0 0 0 0 
2161 0 0 0 0 0 0 0 0 
2163 0 0 0 0 0 0 0 0 
2165 0 0 0 0 0 0 0 0 
2167 0 0 0 0 0 0 0 0 
2169 0 0 0 0 0 0 0 0 
2171 0 0 0 0 0 0 0 0 
2173 0 0 0 0 0 0 0 0 
2175 0 0 0 0 0 0 0 0 
2201 0 0 0 0 0 0 0 0 
2203 0 0 0 0 0 0 0 0 
2205 0 0 0 0 0 0 0 0 
2207 0 0 0 0 0 0 0 0 
2209 0 0 0 0 0 0 0 0 
2211 0 0 0 0 0 0 0 0 
2213 0 0 0 0 0 0 0 0 
2215 0 0 0 0 0 0 0 0 
2217 0 0 0 0 0 0 0 0 
2219 0 0 0 0 0 0 0 0 
2221 0 0 0 0 0 0 0 0 
2223 0 0 0 0 0 0 0 0 
2225 0 0 0 0 0 0 0 0 
2251 0 0 0 0 0 0 0 0 
2253 0 0 0 0 0 0 0 0 
2255 0 0 0 0 0 0 0 0 
2257 0 0 0 0 0 0 0 0 
2259 0 0 0 0 0 0 0 0 
2261 0 0 0 0 0 0 0 0 
2263 0 0 0 0 0 0 0 0 
2265 0 0 0 0 0 0 0 0 
2267 0 0 0 0 0 0 0 0 
2269 0 0 0 0 0 0 0 0 
2271 0 0 0 0 0 0 0 0 
2273 0 0 0 0 0 0 0 0 
2275 0 0 0 0 0 0 0 0 
2301 0 0 0 0 0 0 0 0 
2303 0 0 0 0 0 0 0 0 
2305 0 0 0 0 0 0 0 0 
2307 0 0 0 0 0 0 0 0 
2309 0 0 0 0 0 0 0 0 
2311 0 0 0 0 0 0 0 0 
2313 0 0 0 0 0 0 0 0 
2315 0 0 0 0 0 0 0 0 
2317 0 0 0 0 0 0 0 0 
2319 0 0 0 0 0 0 0 0 
2321 0 0 0 0 0 0 0 0 
2323 0 0 0 0 0 0 0 0 
2325 0 0 0 0 0 0 0 0 
2351 0 0 0 0 0 0 0 0 
2353 0 0 0 0 0 0 0 0 
2355 0 0 0 0 0 0 0 0 
2357 0 0 0 0 0 0 0 0 
2359 0 0 0 0 0 0 0 0 
2361 0 0 0 0 0 0 0 0 
2363 0 0 0 0 0 0 0 0 
2365 0 0 0 0 0 0 0 0 
2367 0 0 0 0 0 0 0 0 
2369 0 0 0 0 0 0 0 0 
2371 0 0 0 0 0 0 0 0 
2373 0 0 0 0 0 0 0 0 
2375 0 0 0 0 0 0 0 0 
2401 0 0 0 0 0 0 0 0 
2403 0 0 0 0 0 0 0 0 
2405 0 0 0 0 0 0 0 0 
2407 0 0 0 0 0 0 0 0 
2409 0 0 0 0 0 0 0 0 
2411 0 0 0 0 0 0 0 0 
2413 0 0 0 0 0 0 0 0 
2415 0 0 0 0 0 0 0 0 
2417 0 0 0 0 0 0 0 0 
2419 0 0 0 0 0 0 0 0 
2421 0 0 0 0 0 0 0 0 
2423 0 0 0 0 0 0 0 0 
2425 0 0 0 0 0 0 0 0 
2451 0 0 0 0 0 0 0 0 
2453 0 0 0 0 0 0 0 0 
2455 0 0 0 0 0 0 0 0 
2457 0 0 0 0 0 0 0 0 
2459 0 0 0 0 0 0 0 0 
2461 0 0 0 0 0 0 0 0 
2463 0 0 0 0 0 0 0 0 
2465 0 0 0 0 0 0 0 0 
2467 0 0 0 0 0 0 0 0 
2469 0 0 0 0 0 0 0 0 
2471 0 0 0 0 0 0 0 0 
2473 0 0 0 0 0 0 0 0 
2475 0 0 0 0 0 0 0 0 
2 0 0 0 0 0 0 0 0 
4 0 0 0 0 0 0 0 0 
6 0 0 0 0 0 0 0 0 
8 0 0 0 0 0 0 0 0 
10 0 0 0 0 0 0 0 0 
12 0 0 0 0 0 0 0 0 
14 0 0 0 0 0 0 0 0 
16 0 0 0 0 0 0 0 0 
18 0 0 0 0 0 0 0 0 
20 0 0 0 0 0 0 0 0 
22 0 0 0 0 0 0 0 0 
24 0 0 0 0 0 0 0 0 
52 0 0 0 0 0 0 0 0 
54 0 0 0 0 0 0 0 0 
56 0 0 0 0 0 0 0 0 
58 0 0 0 0 0 0 0 0 
60 0 0 0 0 0 0 0 0 
62 0 0 0 0 0 0 0 0 
64 0 0 0 0 0 0 0 0 
66 0 0 0 0 0 0 0 0 
68 0 0 0 0 0 0 0 0 
70 0 0 0 0 0 0 0 0 
72 0 0 0 0 0 0 0 0 
74 0 0 0 0 0 0 0 0 
102 0 0 0 0 0 0 0 0 
104 0 0 0 0 0 0 0 0 
106 0 0 0 0 0 0 0 0 
108 0 0 0 0 0 0 0 0 
110 0 0 0 0 0 0 0 0 
112 0 0 0 0 0 0 0 0 
114 0 0 0 0 0 0 0 0 
116 0 0 0 0 0 0 0 0 
118 0 0 0 0 0 0 0 0 
120 0 0 0 0 0 0 0 0 
122 0 0 0 0 0 0 0 0 
124 0 0 0 0 0 0 0 0 
152 0 0 0 0 0 0 0 0 
154 0 0 0 0 0 0 0 0 
156 0 0 0 0 0 0 0 0 
158 0 0 0 0 0 0 0 0 
160 0 0 0 0 0 0 0 0 
162 0 0 0 0 0 0 0 0 
164 0 0 0 0 0 0 0 0 
166 0 0 0 0 0 0 0 0 
168 0 0 0 0 0 0 0 0 
170 0 0 0 0 0 0 0 0 
172 0 0 0 0 0 0 0 0 
174 0 0 0 0 0 0 0 0 
202 0 0 0 0 0 0 0 0 
204 0 0 0 0 0 0 0 0 
206 0 0 0 0 0 0 0 0 
208 0 0 0 0 0 0 0 0 
210 0 0 0 0 0 0 0 0 
212 0 0 0 0 0 0 0 0 
214 0 0 0 0 0 0 0 0 
216 0 0 0 0 0 0 0 0 
218 0 0 0 0 0 0 0 0 
220 0 0 0 0 0 0 0 0 
222 0 0 0 0 0 0 0 0 
224 0 0 0 0 0 0 0 0 
252 0 0 0 0 0 0 0 0 
254 0 0 0 0 0 0 0 0 
256 0 0 0 0 0 0 0 0 
258 0 0 0 0 0 0 0 0 
260 0 0 0 0 0 0 0 0 
262 0 0 0 0 0 0 0 0 
264 0 0 0 0 0 0 0 0 
266 0 0 0 0 0 0 0 0 
268 0 0 0 0 0 0 0 0 
270 0 0 0 0 0 0 0 0 
272 0 0 0 0 0 0 0 0 
274 0 0 0 0 0 0 0 0 
302 0 0 0 0 0 0 0 0 
304 0 0 0 0 0 0 0 0 
306 0 0 0 0 0 0 0 0 
308 0 0 0 0 0 0 0 0 
310 0 0 0 0 0 0 0 0 
312 0 0 0 0 0 0 0 0 
314 0 0 0 0 0 0 0 0 
316 0 0 0 0 0 0 0 0 
318 0 0 0 0 0 0 0 0 
320 0 0 0 0 0 0 0 0 
322 0 0 0 0 0 0 0 0 
324 0 0 0 0 0 0 0 0 
352 0 0 0 0 0 0 0 0 
354 0 0 0 0 0 0 0 0 
356 0 0 0 0 0 0 0 0 
358 0 0 0 0 0 0 0 0 
360 0 0 0 0 0 0 0 0 
362 0 0 0 0 0 0 0 0 
364 0 0 0 0 0 0 0 0 
366 0 0 0 0 0 0 0 0 
368 0 0 0 0 0 0 0 0 
370 0 0 0 0 0 0 0 0 
372 0 0 0 0 0 0 0 0 
374 0 0 0 0 0 0 0 0 
402 0 0 0 0 0 0 0 0 
404 0 0 0 0 0 0 0 0 
406 0 0 0 0 0 0 0 0 
408 0 0 0 0 0 0 0 0 
410 0 0 0 0 0 0 0 0 
412 0 0 0 0 0 0 0 0 
414 0 0 0 0 0 0 0 0 
416 0 0 0 0 0 0 0 0 
418 0 0 0 0 0 0 0 0 
420 0 0 0 0 0 0 0 0 
422 0 0 0 0 0 0 0 0 
424 0 0 0 0 0 0 0 0 
452 0 0 0 0 0 0 0 0 
454 0 0 0 0 0 0 0 0 
456 0 0 0 0 0 0 0 0 
458 0 0 0 0 0 0 0 0 
460 0 0 0 0 0 0 0 0 
462 0 0 0 0 0 0 0 0 
464 0 0 0 0 0 0 0 0 
466 0 0 0 0 0 0 0 0 
468 0 0 0 0 0 0 0 0 
470 0 0 0 0 0 0 0 0 
472 0 0 0 0 0 0 0 0 
474 0 0 0 0 0 0 0 0 
502 0 0 0 0 0 0 0 0 
504 0 0 0 0 0 0 0 0 
506 0 0 0 0 0 0 0 0 
508 0 0 0 0 0 0 0 0 
510 0 0 0 0 0 0 0 0 
512 0 0 0 0 0 0 0 0 
514 0 0 0 0 0 0 0 0 
516 0 0 0 0 0 0 0 0 
518 0 0 0 0 0 0 0 0 
520 0 0 0 0 0 0 0 0 
522 0 0 0 0 0 0 0 0 
524 0 0 0 0 0 0 0 0 
552 0 0 0 0 0 0 0 0 
554 0 0 0 0 0 0 0 0 
556 0 0 0 0 0 0 0 0 
558 0 0 0 0 0 0 0 0 
560 0 0 0 0 0 0 0 0 
562 0 0 0 0 0 0 0 0 
564 0 0 0 0 0 0 0 0 
566 0 0 0 0 0 0 0 0 
568 0 0 0 0 0 0 0 0 
570 0 0 0 0 0 0 0 0 
572 0 0 0 0 0 0 0 0 
574 0 0 0 0 0 0 0 0 
602 0 0 0 0 0 0 0 0 
604 0 0 0 0 0 0 0 0 
606 0 0 0 0 0 0 0 0 
608 0 0 0 0 0 0 0 0 
610 0 0 0 0 0 0 0 0 
612 0 0 0 0 0 0 0 0 
614 0 0 0 0 0 0 0 0 
616 0 0 0 0 0 0 0 0 
618 0 0 0 0 0 0 0 0 
620 0 0 0 0 0 0 0 0 
622 0 0 0 0 0 0 0 0 
624 0 0 0 0 0 0 0 0 
652 0 0 0 0 0 0 0 0 
654 0 0 0 0 0 0 0 0 
656 0 0 0 0 0 0 0 0 
658 0 0 0 0 0 0 0 0 
660 0 0 0 0 0 0 0 0 
662 0 0 0 0 0 0 0 0 
664 0 0 0 0 0 0 0 0 
666 0 0 0 0 0 0 0 0 
668 0 0 0 0 0 0 0 0 
670 0 0 0 0 0 0 0 0 
672 0 0 0 0 0 0 0 0 
674 0 0 0 0 0 0 0 0 
702 0 0 0 0 0 0 0 0 
704 0 0 0 0 0 0 0 0 
706 0 0 0 0 0 0 0 0 
708 0 0 0 0 0 0 0 0 
710 0 0 0 0 0 0 0 0 
712 0 0 0 0 0 0 0 0 
714 0 0 0 0 0 0 0 0 
716 0 0 0 0 0 0 0 0 
718 0 0 0 0 0 0 0 0 
720 0 0 0 0 0 0 0 0 
722 0 0 0 0 0 0 0 0 
724 0 0 0 0 0 0 0 0 
752 0 0 0 0 0 0 0 0 
754 0 0 0 0 0 0 0 0 
756 0 0 0 0 0 0 0 0 
758 0 0 0 0 0 0 0 0 
760 0 0 0 0 0 0 0 0 
762 0 0 0 0 0 0 0 0 
764 0 0 0 0 0 0 0 0 
766 0 0 0 0 0 0 0 0 
768 0 0 0 0 0 0 0 0 
770 0 0 0 0 0 0 0 0 
772 0 0 0 0 0 0 0 0 
774 0 0 0 0 0 0 0 0 
802 0 0 0 0 0 0 0 0 
804 0 0 0 0 0 0 0 0 
806 0 0 0 0 0 0 0 0 
808 0 0 0 0 0 0 0 0 
810 0 0 0 0 0 0 0 0 
812 0 0 0 0 0 0 0 0 
814 0 0 0 0 0 0 0 0 
816 0 0 0 0 0 0 0 0 
818 0 0 0 0 0 0 0 0 
820 0 0 0 0 0 0 0 0 
822 0 0 0 0 0 0 0 0 
824 0 0 0 0 0 0 0 0 
852 0 0 0 0 0 0 0 0 
854 0 0 0 0 0 0 0 0 
856 0 0 0 0 0 0 0 0 
858 0 0 0 0 0 0 0 0 
860 0 0 0 0 0 0 0 0 
862 0 0 0 0 0 0 0 0 
864 0 0 0 0 0 0 0 0 
866 0 0 0 0 0 0 0 0 
868 0 0 0 0 0 0 0 0 
870 0 0 0 0 0 0 0 0 
872 0 0 0 0 0 0 0 0 
902 0 0 0 0 0 0 0 0 
904 0 0 0 0 0 0 0 0 
906 0 0 0 0 0 0 0 0 
908 0 0 0 0 0 0 0 0 
910 0 0 0 0 0 0 0 0 
912 0 0 0 0 0 0 0 0 
914 0 0 0 0 0 0 0 0 
916 0 0 0 0 0 0 0 0 
918 0 0 0 0 0 0 0 0 
920 0 0 0 0 0 0 0 0 
924 0 0 0 0 0 0 0 0 
952 0 0 0 0 0 0 0 0 
954 0 0 0 0 0 0 0 0 
956 0 0 0 0 0 0 0 0 
958 0 0 0 0 0 0 0 0 
960 0 0 0 0 0 0 0 0 
962 0 0 0 0 0 0 0 0 
964 0 0 0 0 0 0 0 0 
966 0 0 0 0 0 0 0 0 
968 0 0 0 0 0 0 0 0 
972 0 0 0 0 0 0 0 0 
974 0 0 0 0 0 0 0 0 
1002 0 0 0 0 0 0 0 0 
1004 0 0 0 0 0 0 0 0 
1006 0 0 0 0 0 0 0 0 
1008 0 0 0 0 0 0 0 0 
1010 0 0 0 0 0 0 0 0 
1012 0 0 0 0 0 0 0 0 
1014 0 0 0 0 0 0 0 0 
1016 0 0 0 0 0 0 0 0 
1018 0 0 0 0 0 0 0 0 
1022 0 0 0 0 0 0 0 0 
1024 0 0 0 0 0 0 0 0 
1052 0 0 0 0 0 0 0 0 
1054 0 0 0 0 0 0 0 0 
1056 0 0 0 0 0 0 0 0 
1058 0 0 0 0 0 0 0 0 
1060 0 0 0 0 0 0 0 0 
1062 0 0 0 0 0 0 0 0 
1064 0 0 0 0 0 0 0 0 
1066 0 0 0 0 0 0 0 0 
1068 0 0 0 0 0 0 0 0 
1070 0 0 0 0 0 0 0 0 
1072 0 0 0 0 0 0 0 0 
1074 0 0 0 0 0 0 0 0 
1102 0 0 0 0 0 0 0 0 
1104 0 0 0 0 0 0 0 0 
1106 0 0 0 0 0 0 0 0 
1108 0 0 0 0 0 0 0 0 
1110 0 0 0 0 0 0 0 0 
1112 0 0 0 0 0 0 0 0 
1114 0 0 0 0 0 0 0 0 
1116 0 0 0 0 0 0 0 0 
1120 0 0 0 0 0 0 0 0 
1122 0 0 0 0 0 0 0 0 
1124 0 0 0 0 0 0 0 0 
1152 0 0 0 0 0 0 0 0 
1154 0 0 0 0 0 0 0 0 
1156 0 0 0 0 0 0 0 0 
1158 0 0 0 0 0 0 0 0 
1160 0 0 0 0 0 0 0 0 
1162 0 0 0 0 0 0 0 0 
1164 0 0 0 0 0 0 0 0 
1166 0 0 0 0 0 0 0 0 
1170 0 0 0 0 0 0 0 0 
1172 0 0 0 0 0 0 0 0 
1174 0 0 0 0 0 0 0 0 
1202 0 0 0 0 0 0 0 0 
1204 0 0 0 0 0 0 0 0 
1206 0 0 0 0 0 0 0 0 
1208 0 0 0 0 0 0 0 0 
1210 0 0 0 0 0 0 0 0 
1212 0 0 0 0 0 0 0 0 
1214 0 0 0 0 0 0 0 0 
1216 0 0 0 0 0 0 0 0 
1220 0 0 0 0 0 0 0 0 
1222 0 0 0 0 0 0 0 0 
1224 0 0 0 0 0 0 0 0 
1252 0 0 0 0 0 0 0 0 
1254 0 0 0 0 0 0 0 0 
1256 0 0 0 0 0 0 0 0 
1258 0 0 0 0 0 0 0 0 
1260 0 0 0 0 0 0 0 0 
1262 0 0 0 0 0 0 0 0 
1264 0 0 0 0 0 0 0 0 
1266 0 0 0 0 0 0 0 0 
1270 0 0 0 0 0 0 0 0 
1272 0 0 0 0 0 0 0 0 
1274 0 0 0 0 0 0 0 0 
1302 0 0 0 0 0 0 0 0 
1304 0 0 0 0 0 0 0 0 
1306 0 0 0 0 0 0 0 0 
1308 0 0 0 0 0 0 0 0 
1310 0 0 0 0 0 0 0 0 
1312 0 0 0 0 0 0 0 0 
1314 0 0 0 0 0 0 0 0 
1316 0 0 0 0 0 0 0 0 
1320 0 0 0 0 0 0 0 0 
1322 0 0 0 0 0 0 0 0 
1324 0 0 0 0 0 0 0 0 
1352 0 0 0 0 0 0 0 0 
1354 0 0 0 0 0 0 0 0 
1356 0 0 0 0 0 0 0 0 
1358 0 0 0 0 0 0 0 0 
1360 0 0 0 0 0 0 0 0 
1362 0 0 0 0 0 0 0 0 
1364 0 0 0 0 0 0 0 0 
1366 0 0 0 0 0 0 0 0 
1370 0 0 0 0 0 0 0 0 
1372 0 0 0 0 0 0 0 0 
1374 0 0 0 0 0 0 0 0 
1402 0 0 0 0 0 0 0 0 
1404 0 0 0 0 0 0 0 0 
1406 0 0 0 0 0 0 0 0 
1408 0 0 0 0 0 0 0 0 
1410 0 0 0 0 0 0 0 0 
1412 0 0 0 0 0 0 0 0 
1414 0 0 0 0 0 0 0 0 
1416 0 0 0 0 0 0 0 0 
1418 0 0 0 0 0 0 0 0 
1420 0 0 0 0 0 0 0 0 
1422 0 0 0 0 0 0 0 0 
1424 0 0 0 0 0 0 0 0 
1452 0 0 0 0 0 0 0 0 
1454 0 0 0 0 0 0 0 0 
1456 0 0 0 0 0 0 0 0 
1458 0 0 0 0 0 0 0 0 
1460 0 0 0 0 0 0 0 0 
1462 0 0 0 0 0 0 0 0 
1464 0 0 0 0 0 0 0 0 
1466 0 0 0 0 0 0 0 0 
1468 0 0 0 0 0 0 0 0 
1472 0 0 0 0 0 0 0 0 
1474 0 0 0 0 0 0 0 0 
1502 0 0 0 0 0 0 0 0 
1504 0 0 0 0 0 0 0 0 
1506 0 0 0 0 0 0 0 0 
1508 0 0 0 0 0 0 0 0 
1510 0 0 0 0 0 0 0 0 
1512 0 0 0 0 0 0 0 0 
1514 0 0 0 0 0 0 0 0 
1516 0 0 0 0 0 0 0 0 
1518 0 0 0 0 0 0 0 0 
1522 0 0 0 0 0 0 0 0 
1524 0 0 0 0 0 0 0 0 
1552 0 0 0 0 0 0 0 0 
1554 0 0 0 0 0 0 0 0 
1556 0 0 0 0 0 0 0 0 
1558 0 0 0 0 0 0 0 0 
1560 0 0 0 0 0 0 0 0 
1562 0 0 0 0 0 0 0 0 
1564 0 0 0 0 0 0 0 0 
1566 0 0 0 0 0 0 0 0 
1568 0 0 0 0 0 0 0 0 
1570 0 0 0 0 0 0 0 0 
1574 0 0 0 0 0 0 0 0 
1602 0 0 0 0 0 0 0 0 
1604 0 0 0 0 0 0 0 0 
1606 0 0 0 0 0 0 0 0 
1608 0 0 0 0 0 0 0 0 
1610 0 0 0 0 0 0 0 0 
1612 0 0 0 0 0 0 0 0 
1614 0 0 0 0 0 0 0 0 
1616 0 0 0 0 0 0 0 0 
1618 0 0 0 0 0 0 0 0 
1620 0 0 0 0 0 0 0 0 
1622 0 0 0 0 0 0 0 0 
1652 0 0 0 0 0 0 0 0 
1654 0 0 0 0 0 0 0 0 
1656 0 0 0 0 0 0 0 0 
1658 0 0 0 0 0 0 0 0 
1660 0 0 0 0 0 0 0 0 
1662 0 0 0 0 0 0 0 0 
1664 0 0 0 0 0 0 0 0 
1666 0 0 0 0 0 0 0 0 
1668 0 0 0 0 0 0 0 0 
1670 0 0 0 0 0 0 0 0 
1672 0 0 0 0 0 0 0 0 
1674 0 0 0 0 0 0 0 0 
1702 0 0 0 0 0 0 0 0 
1704 0 0 0 0 0 0 0 0 
1706 0 0 0 0 0 0 0 0 
1708 0 0 0 0 0 0 0 0 
1710 0 0 0 0 0 0 0 0 
1712 0 0 0 0 0 0 0 0 
1714 0 0 0 0 0 0 0 0 
1716 0 0 0 0 0 0 0 0 
1718 0 0 0 0 0 0 0 0 
1720 0 0 0 0 0 0 0 0 
1722 0 0 0 0 0 0 0 0 
1724 0 0 0 0 0 0 0 0 
1752 0 0 0 0 0 0 0 0 
1754 0 0 0 0 0 0 0 0 
1756 0 0 0 0 0 0 0 0 
1758 0 0 0 0 0 0 0 0 
1760 0 0 0 0 0 0 0 0 
1762 0 0 0 0 0 0 0 0 
1764 0 0 0 0 0 0 0 0 
1766 0 0 0 0 0 0 0 0 
1768 0 0 0 0 0 0 0 0 
1770 0 0 0 0 0 0 0 0 
1772 0 0 0 0 0 0 0 0 
1774 0 0 0 0 0 0 0 0 
1802 0 0 0 0 0 0 0 0 
1804 0 0 0 0 0 0 0 0 
1806 0 0 0 0 0 0 0 0 
1808 0 0 0 0 0 0 0 0 
1810 0 0 0 0 0 0 0 0 
1812 0 0 0 0 0 0 0 0 
1814 0 0 0 0 0 0 0 0 
1816 0 0 0 0 0 0 0 0 
1818 0 0 0 0 0 0 0 0 
1820 0 0 0 0 0 0 0 0 
1822 0 0 0 0 0 0 0 0 
1824 0 0 0 0 0 0 0 0 
1852 0 0 0 0 0 0 0 0 
1854 0 0 0 0 0 0 0 0 
1856 0 0 0 0 0 0 0 0 
1858 0 0 0 0 0 0 0 0 
1860 0 0 0 0 0 0 0 0 
1862 0 0 0 0 0 0 0 0 
1864 0 0 0 0 0 0 0 0 
1866 0 0 0 0 0 0 0 0 
1868 0 0 0 0 0 0 0 0 
1870 0 0 0 0 0 0 0 0 
1872 0 0 0 0 0 0 0 0 
1874 0 0 0 0 0 0 0 0 
1902 0 0 0 0 0 0 0 0 
1904 0 0 0 0 0 0 0 0 
1906 0 0 0 0 0 0 0 0 
1908 0 0 0 0 0 0 0 0 
1910 0 0 0 0 0 0 0 0 
1912 0 0 0 0 0 0 0 0 
1914 0 0 0 0 0 0 0 0 
1916 0 0 0 0 0 0 0 0 
1918 0 0 0 0 0 0 0 0 
1920 0 0 0 0 0 0 0 0 
1922 0 0 0 0 0 0 0 0 
1924 0 0 0 0 0 0 0 0 
1952 0 0 0 0 0 0 0 0 
1954 0 0 0 0 0 0 0 0 
1956 0 0 0 0 0 0 0 0 
1958 0 0 0 0 0 0 0 0 
1960 0 0 0 0 0 0 0 0 
1962 0 0 0 0 0 0 0 0 
1964 0 0 0 0 0 0 0 0 
1966 0 0 0 0 0 0 0 0 
1968 0 0 0 0 0 0 0 0 
1970 0 0 0 0 0 0 0 0 
1972 0 0 0 0 0 0 0 0 
1974 0 0 0 0 0 0 0 0 
2002 0 0 0 0 0 0 0 0 
2004 0 0 0 0 0 0 0 0 
2006 0 0 0 0 0 0 0 0 
2008 0 0 0 0 0 0 0 0 
2010 0 0 0 0 0 0 0 0 
2012 0 0 0 0 0 0 0 0 
2014 0 0 0 0 0 0 0 0 
2016 0 0 0 0 0 0 0 0 
2018 0 0 0 0 0 0 0 0 
2020 0 0 0 0 0 0 0 0 
2022 0 0 0 0 0 0 0 0 
2024 0 0 0 0 0 0 0 0 
2052 0 0 0 0 0 0 0 0 
2054 0 0 0 0 0 0 0 0 
2056 0 0 0 0 0 0 0 0 
2058 0 0 0 0 0 0 0 0 
2060 0 0 0 0 0 0 0 0 
2062 0 0 0 0 0 0 0 0 
2064 0 0 0 0 0 0 0 0 
2066 0 0 0 0 0 0 0 0 
2068 0 0 0 0 0 0 0 0 
2070 0 0 0 0 0 0 0 0 
2072 0 0 0 0 0 0 0 0 
2074 0 0 0 0 0 0 0 0 
2102 0 0 0 0 0 0 0 0 
2104 0 0 0 0 0 0 0 0 
2106 0 0 0 0 0 0 0 0 
2108 0 0 0 0 0 0 0 0 
2110 0 0 0 0 0 0 0 0 
2112 0 0 0 0 0 0 0 0 
2114 0 0 0 0 0 0 0 0 
2116 0 0 0 0 0 0 0 0 
2118 0 0 0 0 0 0 0 0 
2120 0 0 0 0 0 0 0 0 
2122 0 0 0 0 0 0 0 0 
2124 0 0 0 0 0 0 0 0 
2152 0 0 0 0 0 0 0 0 
2154 0 0 0 0 0 0 0 0 
2156 0 0 0 0 0 0 0 0 
2158 0 0 0 0 0 0 0 0 
2160 0 0 0 0 0 0 0 0 
2162 0 0 0 0 0 0 0 0 
2164 0 0 0 0 0 0 0 0 
2166 0 0 0 0 0 0 0 0 
2168 0 0 0 0 0 0 0 0 
2170 0 0 0 0 0 0 0 0 
2172 0 0 0 0 0 0 0 0 
2174 0 0 0 0 0 0 0 0 
2202 0 0 0 0 0 0 0 0 
2204 0 0 0 0 0 0 0 0 
2206 0 0 0 0 0 0 0 0 
2208 0 0 0 0 0 0 0 0 
2210 0 0 0 0 0 0 0 0 
2212 0 0 0 0 0 0 0 0 
2214 0 0 0 0 0 0 0 0 
2216 0 0 0 0 0 0 0 0 
2218 0 0 0 0 0 0 0 0 
2220 0 0 0 0 0 0 0 0 
2222 0 0 0 0 0 0 0 0 
2224 0 0 0 0 0 0 0 0 
2252 0 0 0 0 0 0 0 0 
2254 0 0 0 0 0 0 0 0 
2256 0 0 0 0 0 0 0 0 
2258 0 0 0 0 0 0 0 0 
2260 0 0 0 0 0 0 0 0 
2262 0 0 0 0 0 0 0 0 
2264 0 0 0 0 0 0 0 0 
2266 0 0 0 0 0 0 0 0 
2268 0 0 0 0 0 0 0 0 
2270 0 0 0 0 0 0 0 0 
2272 0 0 0 0 0 0 0 0 
2274 0 0 0 0 0 0 0 0 
2302 0 0 0 0 0 0 0 0 
2304 0 0 0 0 0 0 0 0 
2306 0 0 0 0 0 0 0 0 
2308 0 0 0 0 0 0 0 0 
2310 0 0 0 0 0 0 0 0 
2312 0 0 0 0 0 0 0 0 
2314 0 0 0 0 0 0 0 0 
2316 0 0 0 0 0 0 0 0 
2318 0 0 0 0 0 0 0 0 
2320 0 0 0 0 0 0 0 0 
2322 0 0 0 0 0 0 0 0 
2324 0 0 0 0 0 0 0 0 
2352 0 0 0 0 0 0 0 0 
2354 0 0 0 0 0 0 0 0 
2356 0 0 0 0 0 0 0 0 
2358 0 0 0 0 0 0 0 0 
2360 0 0 0 0 0 0 0 0 
2362 0 0 0 0 0 0 0 0 
2364 0 0 0 0 0 0 0 0 
2366 0 0 0 0 0 0 0 0 
2368 0 0 0 0 0 0 0 0 
2370 0 0 0 0 0 0 0 0 
2372 0 0 0 0 0 0 0 0 
2374 0 0 0 0 0 0 0 0 
2402 0 0 0 0 0 0 0 0 
2404 0 0 0 0 0 0 0 0 
2406 0 0 0 0 0 0 0 0 
2408 0 0 0 0 0 0 0 0 
2410 0 0 0 0 0 0 0 0 
2412 0 0 0 0 0 0 0 0 
2414 0 0 0 0 0 0 0 0 
2416 0 0 0 0 0 0 0 0 
2418 0 0 0 0 0 0 0 0 
2420 0 0 0 0 0 0 0 0 
2422 0 0 0 0 0 0 0 0 
2424 0 0 0 0 0 0 0 0 
2452 0 0 0 0 0 0 0 0 
2454 0 0 0 0 0 0 0 0 
2456 0 0 0 0 0 0 0 0 
2458 0 0 0 0 0 0 0 0 
2460 0 0 0 0 0 0 0 0 
2462 0 0 0 0 0 0 0 0 
2464 0 0 0 0 0 0 0 0 
2466 0 0 0 0 0 0 0 0 
2468 0 0 0 0 0 0 0 0 
2470 0 0 0 0 0 0 0 0 
2472 0 0 0 0 0 0 0 0 
2474 0 0 0 0 0 0 0 0 
4969 0 0 0 0 0 0 0 0 
9065 0 0 0 0 0 0 0 0 
4971 0 0 0 0 0 0 0 0 
9067 0 0 0 0 0 0 0 0 
5017 0 0 0 0 0 0 0 0 
9113 0 0 0 0 0 0 0 0 
13209 0 0 0 0 0 0 0 0 
9115 0 0 0 0 0 0 0 0 
13211 0 0 0 0 0 0 0 0 
17307 0 0 0 0 0 0 0 0 
13259 0 0 0 0 0 0 0 0 
17355 0 0 0 0 0 0 0 0 
5115 0 0 0 0 0 0 0 0 
9211 0 0 0 0 0 0 0 0 
13307 0 0 0 0 0 0 0 0 
17453 0 0 0 0 0 0 0 0 
9311 0 0 0 0 0 0 0 0 
13407 0 0 0 0 0 0 0 0 
17503 0 0 0 0 0 0 0 0 
5465 0 0 0 0 0 0 0 0 
9561 0 0 0 0 0 0 0 0 
17753 0 0 0 0 0 0 0 0 
9611 0 0 0 0 0 0 0 0 
5565 0 0 0 0 0 0 0 0 
13757 0 0 0 0 0 0 0 0 
17853 0 0 0 0 0 0 0 0 
5617 0 0 0 0 0 0 0 0 
9713 0 0 0 0 0 0 0 0 
5667 0 0 0 0 0 0 0 0 
13859 0 0 0 0 0 0 0 0 
17955 0 0 0 0 0 0 0 0 
5669 0 0 0 0 0 0 0 0 
9765 0 0 0 0 0 0 0 0 
17957 0 0 0 0 0 0 0 0 
13911 0 0 0 0 0 0 0 0 
18007 0 0 0 0 0 0 0 0 
13913 0 0 0 0 0 0 0 0 
18009 0 0 0 0 0 0 0 0 
4970 0 0 0 0 0 0 0 0 
9066 0 0 0 0 0 0 0 0 
17306 0 0 0 0 0 0 0 0 
5066 0 0 0 0 0 0 0 0 
9212 0 0 0 0 0 0 0 0 
17404 0 0 0 0 0 0 0 0 
5214 0 0 0 0 0 0 0 0 
13406 0 0 0 0 0 0 0 0 
5264 0 0 0 0 0 0 0 0 
13456 0 0 0 0 0 0 0 0 
5314 0 0 0 0 0 0 0 0 
13556 0 0 0 0 0 0 0 0 
5414 0 0 0 0 0 0 0 0 
13606 0 0 0 0 0 0 0 0 
5464 0 0 0 0 0 0 0 0 
13656 0 0 0 0 0 0 0 0 
9662 0 0 0 0 0 0 0 0 
17854 0 0 0 0 0 0 0 0 
13808 0 0 0 0 0 0 0 0 
9764 0 0 0 0 0 0 0 0 
13912 0 0 0 0 0 0 0 0 
18008 0 0 0 0 0 0 0 0 
45929 0 0 0 0 0 0 0 0 
78697 0 0 0 0 0 0 0 0 
111465 0 0 0 0 0 0 0 0 
50025 0 0 0 0 0 0 0 0 
82793 0 0 0 0 0 0 0 0 
111467 0 0 0 0 0 0 0 0 
144235 0 0 0 0 0 0 0 0 
115563 0 0 0 0 0 0 0 0 
148331 0 0 0 0 0 0 0 0 
50073 0 0 0 0 0 0 0 0 
103323 0 0 0 0 0 0 0 0 
136091 0 0 0 0 0 0 0 0 
136139 0 0 0 0 0 0 0 0 
74699 0 0 0 0 0 0 0 0 
107467 0 0 0 0 0 0 0 0 
140235 0 0 0 0 0 0 0 0 
50171 0 0 0 0 0 0 0 0 
37933 0 0 0 0 0 0 0 0 
70701 0 0 0 0 0 0 0 0 
103469 0 0 0 0 0 0 0 0 
74797 0 0 0 0 0 0 0 0 
140333 0 0 0 0 0 0 0 0 
46125 0 0 0 0 0 0 0 0 
70751 0 0 0 0 0 0 0 0 
136287 0 0 0 0 0 0 0 0 
79193 0 0 0 0 0 0 0 0 
144729 0 0 0 0 0 0 0 0 
103819 0 0 0 0 0 0 0 0 
46475 0 0 0 0 0 0 0 0 
112011 0 0 0 0 0 0 0 0 
144779 0 0 0 0 0 0 0 0 
83339 0 0 0 0 0 0 0 0 
148875 0 0 0 0 0 0 0 0 
107965 0 0 0 0 0 0 0 0 
79345 0 0 0 0 0 0 0 0 
50673 0 0 0 0 0 0 0 0 
83441 0 0 0 0 0 0 0 0 
148977 0 0 0 0 0 0 0 0 
108067 0 0 0 0 0 0 0 0 
46629 0 0 0 0 0 0 0 0 
79397 0 0 0 0 0 0 0 0 
38487 0 0 0 0 0 0 0 0 
104023 0 0 0 0 0 0 0 0 
136791 0 0 0 0 0 0 0 0 
108119 0 0 0 0 0 0 0 0 
140887 0 0 0 0 0 0 0 0 
38489 0 0 0 0 0 0 0 0 
71257 0 0 0 0 0 0 0 0 
42585 0 0 0 0 0 0 0 0 
75353 0 0 0 0 0 0 0 0 
144234 0 0 0 0 0 0 0 0 
115562 0 0 0 0 0 0 0 0 
148330 0 0 0 0 0 0 0 0 
37786 0 0 0 0 0 0 0 0 
70554 0 0 0 0 0 0 0 0 
103322 0 0 0 0 0 0 0 0 
140186 0 0 0 0 0 0 0 0 
111514 0 0 0 0 0 0 0 0 
144282 0 0 0 0 0 0 0 0 
41930 0 0 0 0 0 0 0 0 
74698 0 0 0 0 0 0 0 0 
107466 0 0 0 0 0 0 0 0 
46026 0 0 0 0 0 0 0 0 
78794 0 0 0 0 0 0 0 0 
111562 0 0 0 0 0 0 0 0 
148426 0 0 0 0 0 0 0 0 
136188 0 0 0 0 0 0 0 0 
78844 0 0 0 0 0 0 0 0 
111612 0 0 0 0 0 0 0 0 
144380 0 0 0 0 0 0 0 0 
42078 0 0 0 0 0 0 0 0 
74846 0 0 0 0 0 0 0 0 
107614 0 0 0 0 0 0 0 0 
50270 0 0 0 0 0 0 0 0 
115806 0 0 0 0 0 0 0 0 
140432 0 0 0 0 0 0 0 0 
83088 0 0 0 0 0 0 0 0 
148624 0 0 0 0 0 0 0 0 
74946 0 0 0 0 0 0 0 0 
140482 0 0 0 0 0 0 0 0 
46274 0 0 0 0 0 0 0 0 
79042 0 0 0 0 0 0 0 0 
111810 0 0 0 0 0 0 0 0 
83138 0 0 0 0 0 0 0 0 
148674 0 0 0 0 0 0 0 0 
38132 0 0 0 0 0 0 0 0 
103668 0 0 0 0 0 0 0 0 
136436 0 0 0 0 0 0 0 0 
74996 0 0 0 0 0 0 0 0 
140532 0 0 0 0 0 0 0 0 
83188 0 0 0 0 0 0 0 0 
148724 0 0 0 0 0 0 0 0 
75046 0 0 0 0 0 0 0 0 